<?xml version="1.0"?>
<VTKFile type="StructuredGrid">
<StructuredGrid WholeExtent="     0   100     0   150     0     0">
<Piece Extent="     0   100     0   150     0     0">
<Points>
<DataArray type="Float32" NumberOfComponents="3"/>
       0.000000       -1.000000        0.000000        0.000000       -0.980000        0.000000        0.000000       -0.960000        0.000000        0.000000       -0.940000        0.000000        0.000000       -0.920000        0.000000        0.000000       -0.900000        0.000000        0.000000       -0.880000        0.000000        0.000000       -0.860000        0.000000        0.000000       -0.840000        0.000000        0.000000       -0.820000        0.000000        0.000000       -0.800000        0.000000        0.000000       -0.780000        0.000000        0.000000       -0.760000        0.000000        0.000000       -0.740000        0.000000        0.000000       -0.720000        0.000000        0.000000       -0.700000        0.000000        0.000000       -0.680000        0.000000        0.000000       -0.660000        0.000000        0.000000       -0.640000        0.000000        0.000000       -0.620000        0.000000        0.000000       -0.600000        0.000000        0.000000       -0.580000        0.000000        0.000000       -0.560000        0.000000        0.000000       -0.540000        0.000000        0.000000       -0.520000        0.000000        0.000000       -0.500000        0.000000        0.000000       -0.480000        0.000000        0.000000       -0.460000        0.000000        0.000000       -0.440000        0.000000        0.000000       -0.420000        0.000000        0.000000       -0.400000        0.000000        0.000000       -0.380000        0.000000        0.000000       -0.360000        0.000000        0.000000       -0.340000        0.000000        0.000000       -0.320000        0.000000        0.000000       -0.300000        0.000000        0.000000       -0.280000        0.000000        0.000000       -0.260000        0.000000        0.000000       -0.240000        0.000000        0.000000       -0.220000        0.000000        0.000000       -0.200000        0.000000        0.000000       -0.180000        0.000000        0.000000       -0.160000        0.000000        0.000000       -0.140000        0.000000        0.000000       -0.120000        0.000000        0.000000       -0.100000        0.000000        0.000000       -0.080000        0.000000        0.000000       -0.060000        0.000000        0.000000       -0.040000        0.000000        0.000000       -0.020000        0.000000        0.000000        0.000000        0.000000        0.000000        0.020000        0.000000        0.000000        0.040000        0.000000        0.000000        0.060000        0.000000        0.000000        0.080000        0.000000        0.000000        0.100000        0.000000        0.000000        0.120000        0.000000        0.000000        0.140000        0.000000        0.000000        0.160000        0.000000        0.000000        0.180000        0.000000        0.000000        0.200000        0.000000        0.000000        0.220000        0.000000        0.000000        0.240000        0.000000        0.000000        0.260000        0.000000        0.000000        0.280000        0.000000        0.000000        0.300000        0.000000        0.000000        0.320000        0.000000        0.000000        0.340000        0.000000        0.000000        0.360000        0.000000        0.000000        0.380000        0.000000        0.000000        0.400000        0.000000        0.000000        0.420000        0.000000        0.000000        0.440000        0.000000        0.000000        0.460000        0.000000        0.000000        0.480000        0.000000        0.000000        0.500000        0.000000        0.000000        0.520000        0.000000        0.000000        0.540000        0.000000        0.000000        0.560000        0.000000        0.000000        0.580000        0.000000        0.000000        0.600000        0.000000        0.000000        0.620000        0.000000        0.000000        0.640000        0.000000        0.000000        0.660000        0.000000        0.000000        0.680000        0.000000        0.000000        0.700000        0.000000        0.000000        0.720000        0.000000        0.000000        0.740000        0.000000        0.000000        0.760000        0.000000        0.000000        0.780000        0.000000        0.000000        0.800000        0.000000        0.000000        0.820000        0.000000        0.000000        0.840000        0.000000        0.000000        0.860000        0.000000        0.000000        0.880000        0.000000        0.000000        0.900000        0.000000        0.000000        0.920000        0.000000        0.000000        0.940000        0.000000        0.000000        0.960000        0.000000        0.000000        0.980000        0.000000        0.000000        1.000000        0.000000
       0.033000       -1.000000        0.000000        0.033000       -0.980000        0.000000        0.033000       -0.960000        0.000000        0.033000       -0.940000        0.000000        0.033000       -0.920000        0.000000        0.033000       -0.900000        0.000000        0.033000       -0.880000        0.000000        0.033000       -0.860000        0.000000        0.033000       -0.840000        0.000000        0.033000       -0.820000        0.000000        0.033000       -0.800000        0.000000        0.033000       -0.780000        0.000000        0.033000       -0.760000        0.000000        0.033000       -0.740000        0.000000        0.033000       -0.720000        0.000000        0.033000       -0.700000        0.000000        0.033000       -0.680000        0.000000        0.033000       -0.660000        0.000000        0.033000       -0.640000        0.000000        0.033000       -0.620000        0.000000        0.033000       -0.600000        0.000000        0.033000       -0.580000        0.000000        0.033000       -0.560000        0.000000        0.033000       -0.540000        0.000000        0.033000       -0.520000        0.000000        0.033000       -0.500000        0.000000        0.033000       -0.480000        0.000000        0.033000       -0.460000        0.000000        0.033000       -0.440000        0.000000        0.033000       -0.420000        0.000000        0.033000       -0.400000        0.000000        0.033000       -0.380000        0.000000        0.033000       -0.360000        0.000000        0.033000       -0.340000        0.000000        0.033000       -0.320000        0.000000        0.033000       -0.300000        0.000000        0.033000       -0.280000        0.000000        0.033000       -0.260000        0.000000        0.033000       -0.240000        0.000000        0.033000       -0.220000        0.000000        0.033000       -0.200000        0.000000        0.033000       -0.180000        0.000000        0.033000       -0.160000        0.000000        0.033000       -0.140000        0.000000        0.033000       -0.120000        0.000000        0.033000       -0.100000        0.000000        0.033000       -0.080000        0.000000        0.033000       -0.060000        0.000000        0.033000       -0.040000        0.000000        0.033000       -0.020000        0.000000        0.033000        0.000000        0.000000        0.033000        0.020000        0.000000        0.033000        0.040000        0.000000        0.033000        0.060000        0.000000        0.033000        0.080000        0.000000        0.033000        0.100000        0.000000        0.033000        0.120000        0.000000        0.033000        0.140000        0.000000        0.033000        0.160000        0.000000        0.033000        0.180000        0.000000        0.033000        0.200000        0.000000        0.033000        0.220000        0.000000        0.033000        0.240000        0.000000        0.033000        0.260000        0.000000        0.033000        0.280000        0.000000        0.033000        0.300000        0.000000        0.033000        0.320000        0.000000        0.033000        0.340000        0.000000        0.033000        0.360000        0.000000        0.033000        0.380000        0.000000        0.033000        0.400000        0.000000        0.033000        0.420000        0.000000        0.033000        0.440000        0.000000        0.033000        0.460000        0.000000        0.033000        0.480000        0.000000        0.033000        0.500000        0.000000        0.033000        0.520000        0.000000        0.033000        0.540000        0.000000        0.033000        0.560000        0.000000        0.033000        0.580000        0.000000        0.033000        0.600000        0.000000        0.033000        0.620000        0.000000        0.033000        0.640000        0.000000        0.033000        0.660000        0.000000        0.033000        0.680000        0.000000        0.033000        0.700000        0.000000        0.033000        0.720000        0.000000        0.033000        0.740000        0.000000        0.033000        0.760000        0.000000        0.033000        0.780000        0.000000        0.033000        0.800000        0.000000        0.033000        0.820000        0.000000        0.033000        0.840000        0.000000        0.033000        0.860000        0.000000        0.033000        0.880000        0.000000        0.033000        0.900000        0.000000        0.033000        0.920000        0.000000        0.033000        0.940000        0.000000        0.033000        0.960000        0.000000        0.033000        0.980000        0.000000        0.033000        1.000000        0.000000
[...]
<CellData Scalars="Concentration">
<DataArray type="Float32" Name="Concentration"/>
       0.000000        0.000000        0.000000        0.000000        0.000000        0.000000        0.000000        0.000000        0.000000        0.000000        0.000000        0.000000        0.000000        0.000000        0.000000        0.000000        0.000000        0.000000        0.000000        0.000000        0.000000        0.000000        0.000000        0.000000        0.000000        0.000000        1.000000        1.000000        1.000000        1.000000        1.000000        1.000000        1.000000        1.000000        1.000000        1.000000        1.000000        1.000000        1.000000        1.000000        1.000000        1.000000        1.000000        1.000000        1.000000        1.000000        1.000000        1.000000        1.000000        1.000000        1.000000        1.000000        1.000000        1.000000        1.000000        1.000000        1.000000        1.000000        1.000000        1.000000        1.000000        1.000000        1.000000        1.000000        1.000000        1.000000        1.000000        1.000000        1.000000        1.000000        1.000000        1.000000        1.000000        1.000000        1.000000        0.000000        0.000000        0.000000        0.000000        0.000000        0.000000        0.000000        0.000000        0.000000        0.000000        0.000000        0.000000        0.000000        0.000000        0.000000        0.000000        0.000000        0.000000        0.000000        0.000000        0.000000        0.000000        0.000000        0.000000        0.000000
       0.000000        0.000004        0.000009        0.000016        0.000026        0.000042        0.000065        0.000099        0.000151        0.000226        0.000337        0.000498        0.000729        0.001061        0.001535        0.002210        0.003174        0.004556        0.006555        0.009491        0.013916        0.020854        0.032443        0.053865        0.100411        0.228821        0.704410        0.832821        0.879366        0.900788        0.912377        0.919315        0.923740        0.926677        0.928675        0.930057        0.931021        0.931697        0.932170        0.932502        0.932733        0.932894        0.933005        0.933080        0.933131        0.933166        0.933188        0.933203        0.933212        0.933217        0.933218        0.933217        0.933212        0.933203        0.933188        0.933166        0.933131        0.933080        0.933005        0.932894        0.932733        0.932502        0.932170        0.931697        0.931021        0.930057        0.928675        0.926677        0.923740        0.919315        0.912377        0.900788        0.879366        0.832821        0.704410        0.228821        0.100411        0.053865        0.032443        0.020854        0.013916        0.009491        0.006555        0.004556        0.003174        0.002210        0.001535        0.001061        0.000729        0.000498        0.000337        0.000226        0.000151        0.000099        0.000064        0.000041        0.000025        0.000015        0.000007        0.000000
       0.000000        0.000008        0.000018        0.000032        0.000052        0.000082        0.000128        0.000196        0.000297        0.000446        0.000664        0.000980        0.001434        0.002085        0.003013        0.004334        0.006214        0.008900        0.012766        0.018406        0.026809        0.039737        0.060586        0.096521        0.163911        0.300480        0.566459        0.703027        0.770417        0.806352        0.827202        0.840129        0.848532        0.854172        0.858038        0.860724        0.862604        0.863925        0.864853        0.865504        0.865959        0.866274        0.866492        0.866641        0.866742        0.866810        0.866854        0.866883        0.866900        0.866910        0.866913        0.866910        0.866900        0.866883        0.866854        0.866810        0.866742        0.866641        0.866492        0.866274        0.865959        0.865504        0.864854        0.863925        0.862604        0.860724        0.858038        0.854172        0.848532        0.840129        0.827202        0.806352        0.770417        0.703027        0.566459        0.300480        0.163911        0.096521        0.060586        0.039737        0.026809        0.018406        0.012766        0.008900        0.006214        0.004334        0.003013        0.002085        0.001434        0.000980        0.000664        0.000446        0.000297        0.000195        0.000127        0.000081        0.000050        0.000029        0.000013        0.000000
       0.000000        0.000012        0.000027        0.000047        0.000076        0.000120        0.000187        0.000287        0.000435        0.000653        0.000971        0.001432        0.002094        0.003040        0.004387        0.006297        0.009006        0.012855        0.018356        0.026295        0.037935        0.055395        0.082393        0.125681        0.197362        0.315632        0.485928        0.604198        0.675879        0.719168        0.746165        0.763625        0.775266        0.783205        0.788705        0.792554        0.795263        0.797174        0.798520        0.799466        0.800128        0.800589        0.800907        0.801125        0.801272        0.801371        0.801436        0.801478        0.801504        0.801518        0.801522        0.801518        0.801504        0.801478        0.801436        0.801371        0.801272        0.801125        0.800907        0.800589        0.800128        0.799466        0.798520        0.797174        0.795263        0.792554        0.788705        0.783205        0.775266        0.763625        0.746165        0.719168        0.675879        0.604198        0.485928        0.315632        0.197362        0.125681        0.082393        0.055395        0.037935        0.026295        0.018356        0.012855        0.009006        0.006297        0.004387        0.003040        0.002094        0.001432        0.000971        0.000653        0.000435        0.000286        0.000186        0.000119        0.000073        0.000042        0.000019        0.000000
       0.000000        0.000016        0.000034        0.000060        0.000098        0.000156        0.000242        0.000370        0.000561        0.000842        0.001251        0.001841        0.002689        0.003898        0.005612        0.008035        0.011453        0.016276        0.023105        0.032833        0.046830        0.067242        0.097476        0.142856        0.210888        0.308534        0.428996        0.526642        0.594674        0.640054        0.670288        0.690700        0.704697        0.714425        0.721254        0.726077        0.729495        0.731918        0.733632        0.734841        0.735688        0.736279        0.736688        0.736968        0.737158        0.737286        0.737370        0.737424        0.737457        0.737475        0.737481        0.737475        0.737457        0.737424        0.737370        0.737286        0.737158        0.736968        0.736688        0.736279        0.735688        0.734841        0.733632        0.731918        0.729495        0.726077        0.721254        0.714425        0.704697        0.690700        0.670288        0.640054        0.594674        0.526642        0.428996        0.308534        0.210888        0.142856        0.097476        0.067242        0.046830        0.032833        0.023105        0.016276        0.011453        0.008035        0.005612        0.003898        0.002689        0.001841        0.001250        0.000842        0.000561        0.000370        0.000241        0.000154        0.000095        0.000054        0.000025        0.000000
       0.000000        0.000019        0.000041        0.000072        0.000118        0.000187        0.000290        0.000444        0.000672        0.001007        0.001494        0.002197        0.003202        0.004631        0.006651        0.009491        0.013472        0.019046        0.026852        0.037810        0.053260        0.075152        0.106290        0.150442        0.211756        0.291952        0.383355        0.463551        0.524865        0.569017        0.600155        0.622047        0.637496        0.648455        0.656261        0.661835        0.665816        0.668656        0.670676        0.672105        0.673110        0.673812        0.674299        0.674634        0.674861        0.675014        0.675115        0.675180        0.675220        0.675241        0.675248        0.675241        0.675220        0.675180        0.675115        0.675014        0.674861        0.674634        0.674299        0.673813        0.673110        0.672105        0.670676        0.668656        0.665816        0.661835        0.656261        0.648455        0.637496        0.622047        0.600155        0.569017        0.524865        0.463551        0.383355        0.291952        0.211756        0.150442        0.106290        0.075152        0.053260        0.037810        0.026852        0.019046        0.013472        0.009491        0.006651        0.004631        0.003202        0.002197        0.001494        0.001007        0.000672        0.000443        0.000289        0.000184        0.000114        0.000065        0.000030        0.000000
       0.000000        0.000021        0.000047        0.000083        0.000135        0.000214        0.000331        0.000506        0.000766        0.001146        0.001697        0.002491        0.003624        0.005228        0.007486        0.010643        0.015038        0.021137        0.029579        0.041251        0.057373        0.079601        0.110078        0.151276        0.205220        0.271446        0.343762        0.409988        0.463931        0.505130        0.535607        0.557834        0.573956        0.585628        0.594071        0.600170        0.604565        0.607722        0.609979        0.611583        0.612716        0.613510        0.614061        0.614441        0.614699        0.614873        0.614988        0.615062        0.615108        0.615132        0.615140        0.615132        0.615108        0.615062        0.614988        0.614873        0.614699        0.614441        0.614061        0.613510        0.612716        0.611583        0.609979        0.607722        0.604565        0.600170        0.594071        0.585628        0.573956        0.557834        0.535607        0.505130        0.463931        0.409988        0.343762        0.271446        0.205220        0.151276        0.110078        0.079601        0.057373        0.041251        0.029579        0.021137        0.015038        0.010643        0.007485        0.005228        0.003624        0.002491        0.001697        0.001145        0.000765        0.000505        0.000329        0.000211        0.000130        0.000075        0.000034        0.000000
       0.000000        0.000024        0.000052        0.000091        0.000149        0.000235        0.000364        0.000557        0.000841        0.001256        0.001858        0.002721        0.003949        0.005681        0.008106        0.011479        0.016139        0.022546        0.031309        0.043241        0.059401        0.081120        0.109957        0.147427        0.194322        0.249425        0.308135        0.363239        0.410134        0.447604        0.476440        0.498160        0.514319        0.526252        0.535015        0.541422        0.546082        0.549454        0.551880        0.553612        0.554840        0.555703        0.556304        0.556719        0.557002        0.557193        0.557319        0.557401        0.557451        0.557478        0.557486        0.557478        0.557451        0.557401        0.557319        0.557193        0.557002        0.556719        0.556304        0.555703        0.554840        0.553612        0.551880        0.549455        0.546082        0.541422        0.535015        0.526252        0.514319        0.498160        0.476441        0.447604        0.410134        0.363239        0.308135        0.249426        0.194322        0.147427        0.109957        0.081120        0.059401        0.043241        0.031309        0.022546        0.016139        0.011479        0.008106        0.005681        0.003949        0.002721        0.001857        0.001256        0.000840        0.000556        0.000362        0.000232        0.000144        0.000082        0.000037        0.000000
       0.000000        0.000025        0.000056        0.000098        0.000160        0.000252        0.000389        0.000594        0.000895        0.001336        0.001972        0.002882        0.004171        0.005983        0.008507        0.011994        0.016776        0.023288        0.032090        0.043898        0.059596        0.080219        0.106851        0.140366        0.180900        0.227108        0.275623        0.321831        0.362365        0.395880        0.422512        0.443135        0.458833        0.470641        0.479443        0.485955        0.490737        0.494224        0.496748        0.498559        0.499849        0.500759        0.501395        0.501834        0.502135        0.502338        0.502473        0.502560        0.502613        0.502642        0.502651        0.502642        0.502613        0.502560        0.502473        0.502338        0.502135        0.501834        0.501395        0.500759        0.499849        0.498559        0.496748        0.494224        0.490737        0.485955        0.479443        0.470641        0.458833        0.443135        0.422512        0.395880        0.362365        0.321831        0.275623        0.227108        0.180900        0.140366        0.106852        0.080219        0.059596        0.043898        0.032090        0.023288        0.016776        0.011994        0.008507        0.005983        0.004171        0.002882        0.001971        0.001335        0.000895        0.000593        0.000387        0.000248        0.000154        0.000088        0.000040        0.000000
       0.000000        0.000026        0.000058        0.000102        0.000167        0.000262        0.000406        0.000618        0.000931        0.001386        0.002042        0.002977        0.004298        0.006145        0.008703        0.012217        0.016997        0.023445        0.032060        0.043456        0.058349        0.077519        0.101696        0.131332        0.166243        0.205183        0.245682        0.284622        0.319533        0.349169        0.373346        0.392516        0.407409        0.418805        0.427421        0.433868        0.438649        0.442162        0.444721        0.446568        0.447888        0.448823        0.449479        0.449933        0.450245        0.450455        0.450595        0.450686        0.450742        0.450772        0.450781        0.450772        0.450742        0.450686        0.450595        0.450455        0.450245        0.449933        0.449479        0.448823        0.447888        0.446568        0.444721        0.442162        0.438649        0.433868        0.427421        0.418805        0.407409        0.392516        0.373346        0.349169        0.319533        0.284622        0.245682        0.205183        0.166243        0.131332        0.101696        0.077519        0.058349        0.043456        0.032060        0.023445        0.016997        0.012216        0.008703        0.006144        0.004298        0.002977        0.002041        0.001385        0.000930        0.000617        0.000403        0.000259        0.000161        0.000092        0.000042        0.000000
       0.000000        0.000027        0.000060        0.000105        0.000171        0.000268        0.000414        0.000630        0.000947        0.001408        0.002069        0.003010        0.004333        0.006175        0.008713        0.012175        0.016849        0.023096        0.031350        0.042125        0.055989        0.073515        0.095174        0.121161        0.151148        0.184064        0.218077        0.250993        0.280980        0.306966        0.328626        0.346152        0.360016        0.370791        0.379045        0.385292        0.389966        0.393428        0.395966        0.397808        0.399131        0.400071        0.400732        0.401192        0.401508        0.401722        0.401865        0.401958        0.402014        0.402045        0.402055        0.402045        0.402014        0.401958        0.401865        0.401722        0.401508        0.401192        0.400732        0.400071        0.399131        0.397808        0.395966        0.393428        0.389966        0.385292        0.379046        0.370791        0.360016        0.346152        0.328626        0.306967        0.280980        0.250993        0.218077        0.184064        0.151148        0.121161        0.095175        0.073515        0.055989        0.042125        0.031350        0.023096        0.016849        0.012175        0.008713        0.006175        0.004333        0.003010        0.002069        0.001407        0.000946        0.000629        0.000412        0.000265        0.000164        0.000095        0.000043        0.000000
       0.000000        0.000027        0.000060        0.000105        0.000171        0.000269        0.000415        0.000630        0.000946        0.001403        0.002058        0.002985        0.004285        0.006085        0.008553        0.011898        0.016380        0.022316        0.030079        0.040090        0.052792        0.068598        0.087801        0.110443        0.136156        0.164047        0.192735        0.220626        0.246338        0.268980        0.288184        0.303990        0.316692        0.326703        0.334466        0.340402        0.344884        0.348229        0.350696        0.352497        0.353796        0.354724        0.355378        0.355835        0.356149        0.356363        0.356505        0.356598        0.356655        0.356685        0.356695        0.356685        0.356655        0.356598        0.356505        0.356363        0.356149        0.355835        0.355378        0.354724        0.353796        0.352497        0.350696        0.348229        0.344884        0.340402        0.334466        0.326703        0.316692        0.303990        0.288184        0.268981        0.246338        0.220626        0.192735        0.164047        0.136156        0.110444        0.087801        0.068598        0.052792        0.040090        0.030079        0.022316        0.016380        0.011898        0.008553        0.006085        0.004285        0.002985        0.002057        0.001402        0.000945        0.000629        0.000413        0.000265        0.000165        0.000095        0.000043        0.000000